LAMMPS data file via write_data, version 7 Aug 2019, timestep = 11001

225 atoms
13 atom types
84 bonds
17 bond types
140 angles
29 angle types
192 dihedrals
38 dihedral types
60 impropers
20 improper types

0.0000000000000000e+00 1.3109999999999999e+01 xlo xhi
0.0000000000000000e+00 1.3109999999999999e+01 ylo yhi
-1.0000000000000000e+00 5.0035845670000000e+01 zlo zhi

Masses

1 12.0112
2 12.0112
3 12.0112
4 12.011
5 12.0112
6 1.00797
7 1.008
8 14.01
9 15.9994
10 15.9994
11 15.9994
12 28.08
13 12.011

Atoms # full

29 1 1 -1.0600000000000000e-01 7.2087341331295320e+00 8.3637131825079596e+00 1.0438286876137443e+01 0 1 0
30 1 6 5.2999999999999999e-02 6.2431464480918288e+00 8.7982459822595445e+00 1.0132107619866165e+01 0 1 0
31 1 6 5.2999999999999999e-02 7.7690488538610794e+00 8.1797809930057124e+00 9.5236125232451698e+00 0 1 0
32 1 5 0.0000000000000000e+00 6.9822505947582192e+00 6.9526611929396820e+00 1.0912435747138145e+01 0 1 0
33 1 5 -1.2680000000000000e-01 5.6674268530373810e+00 6.5176601868224511e+00 1.1053827209865942e+01 0 1 0
34 1 6 1.2680000000000000e-01 4.8393048427134620e+00 7.2366950390485245e+00 1.1118632161208213e+01 0 1 0
35 1 5 -1.2680000000000000e-01 5.3686196092773768e+00 5.1685315659206807e+00 1.1073982590713603e+01 0 1 0
36 1 6 1.2680000000000000e-01 4.3168656690360345e+00 4.8964585019068476e+00 1.1200795046211571e+01 0 1 0
37 1 5 2.3699999999999999e-01 6.3572761109776765e+00 4.1992139097233467e+00 1.0890369795763517e+01 0 1 0
38 1 5 -1.2680000000000000e-01 7.6756693948060235e+00 4.6419902424565898e+00 1.0771818901694795e+01 0 1 0
39 1 6 1.2680000000000000e-01 8.4769420064652472e+00 3.9049804033633357e+00 1.0621460957787054e+01 0 1 0
40 1 5 -1.2680000000000000e-01 7.9851697945672591e+00 5.9939237228030295e+00 1.0781594591861163e+01 0 1 0
42 1 8 -7.2599999999999998e-01 6.0777429549138517e+00 2.8126825883134905e+00 1.0834687672568965e+01 0 1 0
45 1 9 -5.8499999999999996e-01 3.9183327352411967e+00 2.8595488829454396e+00 1.0265753753020833e+01 0 1 0
66 1 6 5.2999999999999999e-02 1.2729419869325941e+01 7.0149406194231458e+00 9.8997183650804441e+00 -1 0 0
72 1 6 5.2999999999999999e-02 9.6608277236634177e-01 4.9556467671410509e+00 9.7270191400576262e+00 0 0 0
41 1 6 1.2680000000000000e-01 9.0356712303614550e+00 6.2847201162879864e+00 1.0623621331472393e+01 0 1 0
24 1 5 0.0000000000000000e+00 7.9683783168361275e+00 9.4491276271323681e+00 1.1161954262041608e+01 0 1 0
25 1 5 -1.2680000000000000e-01 9.1925184527444799e+00 9.8504493202366206e+00 1.0634284916498789e+01 0 1 0
26 1 6 1.2680000000000000e-01 9.7154166717938004e+00 9.2484475333152396e+00 9.8895065756836544e+00 0 1 0
27 1 5 -1.2680000000000000e-01 9.7826485289073339e+00 1.1039767551584854e+01 1.1020359507296474e+01 0 1 0
28 1 6 1.2680000000000000e-01 1.0707427292453875e+01 1.1349879742952337e+01 1.0529285554580600e+01 0 1 0
75 1 6 5.2999999999999999e-02 1.2086859570611796e+01 3.2698011264482245e+00 9.8249238991652952e+00 -1 0 0
74 1 1 -2.5999999999999999e-02 1.2671314472023843e+01 2.9664153340593922e+00 1.0699319284074813e+01 -1 0 0
76 1 6 5.2999999999999999e-02 1.2018719426610163e+01 2.4129344987104382e+00 1.1382083864912639e+01 -1 0 0
82 2 12 1.2010000000000001e+00 1.4640801135196368e-01 1.3069580988266013e+01 1.4490189621057162e-01 0 -1 0
83 2 12 1.2010000000000001e+00 2.3264326782400655e+00 1.3072162892177960e+01 2.2862583823425981e+00 0 -1 0
84 2 12 1.2010000000000001e+00 1.3943046675860213e-01 2.1406694564166098e+00 2.2986699321780915e+00 0 0 0
85 2 12 1.2010000000000001e+00 2.3362907314693295e+00 2.1376925309624144e+00 1.4870083068433504e-01 0 0 0
86 2 13 -1.2010000000000001e+00 1.2343336468336574e+00 1.0538447459112366e+00 1.0682694445448324e+00 0 0 0
87 2 13 -1.2010000000000001e+00 3.4186401186543254e+00 1.0542208636017651e+00 3.2756106570119408e+00 0 0 0
88 2 13 -1.2010000000000001e+00 1.2306776088141389e+00 3.2360867982472827e+00 3.2883254080466324e+00 0 0 0
89 2 13 -1.2010000000000001e+00 3.4203921845795753e+00 3.2430336689844772e+00 1.0619215065502947e+00 0 0 0
90 2 12 1.2010000000000001e+00 4.5178110362585517e+00 1.3071750754999764e+01 1.5095758912407262e-01 0 -1 0
91 2 12 1.2010000000000001e+00 4.5116449592940908e+00 2.1494047672040728e+00 2.2876219171816374e+00 0 0 0
92 2 13 -1.2010000000000001e+00 5.6065057796574918e+00 1.0670407058665630e+00 1.0610710336780060e+00 0 0 0
93 2 13 -1.2010000000000001e+00 5.6115251548136849e+00 3.2455770435764313e+00 3.2712695127113913e+00 0 0 0
94 2 12 1.2010000000000001e+00 1.5366912435736801e-01 4.3236318453963927e+00 1.4581740727446682e-01 0 0 0
95 2 12 1.2010000000000001e+00 2.3230279089737809e+00 4.3310225457788851e+00 2.2934116090726864e+00 0 0 0
96 2 13 -1.2010000000000001e+00 1.2390901063131496e+00 5.4274489585790180e+00 1.0579599692231527e+00 0 0 0
97 2 13 -1.2010000000000001e+00 3.4203656833222387e+00 5.4337209970596465e+00 3.2735553613098571e+00 0 0 0
98 2 12 1.2010000000000001e+00 4.5095357411546617e+00 4.3344617542808743e+00 1.3588387070431979e-01 0 0 0
99 2 13 -1.2010000000000001e+00 5.6022402889981180e+00 5.4338277412618607e+00 1.0441123696390595e+00 0 0 0
100 2 12 1.2010000000000001e+00 1.3845267247195467e-01 1.3063560186778366e+01 4.4613234782878024e+00 0 -1 0
101 2 12 1.2010000000000001e+00 2.3272243740678369e+00 1.3058011921541965e+01 6.6839554311402463e+00 0 -1 0
102 2 12 1.2010000000000001e+00 1.4797123914451835e-01 2.1261531583191786e+00 6.6845372963023255e+00 0 0 0
103 2 12 1.2010000000000001e+00 2.3241344620322275e+00 2.1420114843988292e+00 4.4606099504362309e+00 0 0 0
104 2 13 -1.2010000000000001e+00 1.2359454010048117e+00 1.0385820885168504e+00 5.4589173758099570e+00 0 0 0
105 2 13 -1.2010000000000001e+00 3.4313229410438750e+00 1.0569002277328636e+00 7.6198959547507847e+00 0 0 0
106 2 13 -1.2010000000000001e+00 1.2722941963765175e+00 3.2050859032389463e+00 7.6329801404602442e+00 0 0 0
107 2 13 -1.2010000000000001e+00 3.4222512382574042e+00 3.2451177457255720e+00 5.4391340610442294e+00 0 0 0
108 2 12 1.2010000000000001e+00 4.5122146615589047e+00 1.3072572627120046e+01 4.4552787184465394e+00 0 -1 0
109 2 12 1.2010000000000001e+00 4.5120771300200895e+00 2.1487379184245241e+00 6.6313557540493910e+00 0 0 0
110 2 13 -1.2010000000000001e+00 5.6109673228785679e+00 1.0550583074383768e+00 5.4461768907957824e+00 0 0 0
111 2 13 -1.2010000000000001e+00 5.6166278995888321e+00 3.2485311653291324e+00 7.5881090025262186e+00 0 0 0
112 2 12 1.2010000000000001e+00 1.4477306710909491e-01 4.3260571290557248e+00 4.4708708730102336e+00 0 0 0
113 2 12 1.2010000000000001e+00 2.3522414974931043e+00 4.3271138935972822e+00 6.6799943127924317e+00 0 0 0
114 2 13 -1.2010000000000001e+00 1.2471930560216453e+00 5.4204489346539253e+00 5.4621627674160331e+00 0 0 0
115 2 13 -1.2010000000000001e+00 3.4299630468580915e+00 5.4221550010083321e+00 7.6803439097817732e+00 0 0 0
116 2 12 1.2010000000000001e+00 4.5108688574471083e+00 4.3371207125152571e+00 4.4410511308745901e+00 0 0 0
117 2 13 -1.2010000000000001e+00 5.6010437682657184e+00 5.4342659667733901e+00 5.4308471170238732e+00 0 0 0
118 2 12 1.2010000000000001e+00 6.7040807624436543e+00 1.3076673309526644e+01 2.2808360597126844e+00 0 -1 0
119 2 12 1.2010000000000001e+00 6.7003344863754775e+00 2.1550707177441715e+00 1.2947534637942240e-01 0 0 0
120 2 13 -1.2010000000000001e+00 7.7963467367330619e+00 1.0652733989406786e+00 3.2662230619294172e+00 0 0 0
121 2 13 -1.2010000000000001e+00 7.7972823776567415e+00 3.2486850589530007e+00 1.0443142106442611e+00 0 0 0
122 2 12 1.2010000000000001e+00 8.8814718144371714e+00 1.3086462387397985e+01 1.2738134189856298e-01 0 -1 0
123 2 12 1.2010000000000001e+00 1.1067043053679203e+01 1.3079147798908904e+01 2.2789593090900158e+00 0 -1 0
124 2 12 1.2010000000000001e+00 8.8856411407195353e+00 2.1587130131092649e+00 2.2737288819130361e+00 0 0 0
125 2 12 1.2010000000000001e+00 1.1064298702360599e+01 2.1628881668708342e+00 1.3644190170737483e-01 0 0 0
126 2 13 -1.2010000000000001e+00 9.9776274508995932e+00 1.0637270694927621e+00 1.0556831480371867e+00 0 0 0
127 2 13 -1.2010000000000001e+00 1.2153290377315789e+01 1.0522393608891505e+00 3.2858400068265330e+00 0 0 0
128 2 13 -1.2010000000000001e+00 9.9805156141992111e+00 3.2421539567217241e+00 3.2739094152068131e+00 0 0 0
129 2 13 -1.2010000000000001e+00 1.2162483168475671e+01 3.2419235267574136e+00 1.0644569783814264e+00 0 0 0
130 2 12 1.2010000000000001e+00 6.6974834805981986e+00 4.3381148751016196e+00 2.2728154335255568e+00 0 0 0
131 2 13 -1.2010000000000001e+00 7.7937289921828636e+00 5.4250763187011453e+00 3.2650425792605109e+00 0 0 0
132 2 12 1.2010000000000001e+00 8.8900861363202086e+00 4.3493029614831471e+00 1.3146567650873972e-01 0 0 0
133 2 12 1.2010000000000001e+00 1.1075336180211339e+01 4.3360641002409155e+00 2.2868345403002373e+00 0 0 0
134 2 13 -1.2010000000000001e+00 9.9855671414378939e+00 5.4337522709127892e+00 1.0554515899061523e+00 0 0 0
135 2 13 -1.2010000000000001e+00 1.2168684080850534e+01 5.4247215168817258e+00 3.2829197450895156e+00 0 0 0
136 2 12 1.2010000000000001e+00 6.7010206035436903e+00 1.3094552765681067e+01 6.7110608197778241e+00 0 -1 0
137 2 12 1.2010000000000001e+00 6.7062253783884813e+00 2.1525543880619655e+00 4.4447864335297540e+00 0 0 0
138 2 13 -1.2010000000000001e+00 7.7815812068874868e+00 1.0709592711030855e+00 7.7269006710730377e+00 0 0 0
139 2 13 -1.2010000000000001e+00 7.8055301718374412e+00 3.2352750805790915e+00 5.4523830709996330e+00 0 0 0
140 2 12 1.2010000000000001e+00 8.8890591421138634e+00 1.3099144549890626e+01 4.4507290108749151e+00 0 -1 0
141 2 12 1.2010000000000001e+00 1.1067487740207829e+01 1.3083019868869215e+01 6.7045300106889139e+00 0 -1 0
142 2 12 1.2010000000000001e+00 8.8704600000917644e+00 2.1539437298594790e+00 6.7229459348555904e+00 0 0 0
143 2 12 1.2010000000000001e+00 1.1059612927212381e+01 2.1502426491337960e+00 4.4641995594132400e+00 0 0 0
144 2 13 -1.2010000000000001e+00 9.9731795309242308e+00 1.0650031156595610e+00 5.4823213422918302e+00 0 0 0
145 2 13 -1.2010000000000001e+00 1.2163307018339014e+01 1.0532813236933398e+00 7.6919055173662496e+00 0 0 0
146 2 13 -1.2010000000000001e+00 9.9621686317313181e+00 3.2596957850792365e+00 7.6990110398433327e+00 0 0 0
147 2 13 -1.2010000000000001e+00 1.2157526397793699e+01 3.2323455271809154e+00 5.4723539950615034e+00 0 0 0
148 2 12 1.2010000000000001e+00 6.7003760401061996e+00 4.3480305348231587e+00 6.6266776027255281e+00 0 0 0
149 2 13 -1.2010000000000001e+00 7.7858095849007718e+00 5.4413303437180973e+00 7.5975991755844516e+00 0 0 0
150 2 12 1.2010000000000001e+00 8.8877023498805272e+00 4.3339758107560673e+00 4.4481301946704512e+00 0 0 0
151 2 12 1.2010000000000001e+00 1.1055647164967262e+01 4.3352457639647994e+00 6.6885361556811809e+00 0 0 0
152 2 13 -1.2010000000000001e+00 9.9792455101080240e+00 5.4243266419011116e+00 5.4508322134114922e+00 0 0 0
153 2 13 -1.2010000000000001e+00 1.2161900781579538e+01 5.4299658886892921e+00 7.6447690060781284e+00 0 0 0
154 2 12 1.2010000000000001e+00 1.4633047597023913e-01 6.5192514390023195e+00 2.2853509280630546e+00 0 0 0
155 2 12 1.2010000000000001e+00 2.3349566336098246e+00 6.5159370535038885e+00 1.3320013458873475e-01 0 0 0
156 2 13 -1.2010000000000001e+00 1.2342347122165966e+00 7.6157202878201362e+00 3.2819435310540510e+00 0 0 0
157 2 13 -1.2010000000000001e+00 3.4215871752613665e+00 7.6155578831677353e+00 1.0588370086961623e+00 0 0 0
158 2 12 1.2010000000000001e+00 4.5137167736087838e+00 6.5232015203852862e+00 2.2705376214834012e+00 0 0 0
159 2 13 -1.2010000000000001e+00 5.6035699889234234e+00 7.6143943817771289e+00 3.2682417141349536e+00 0 0 0
160 2 12 1.2010000000000001e+00 1.4695949358244711e-01 8.7033246300872307e+00 1.3942016449287711e-01 0 0 0
161 2 12 1.2010000000000001e+00 2.3227861548315358e+00 8.7010022457706704e+00 2.2829453223393061e+00 0 0 0
162 2 12 1.2010000000000001e+00 1.4687394558772737e-01 1.0884693769755579e+01 2.2792096729750626e+00 0 0 0
163 2 12 1.2010000000000001e+00 2.3338568609561796e+00 1.0889614067970715e+01 1.4197278077259948e-01 0 0 0
164 2 13 -1.2010000000000001e+00 1.2417581408945575e+00 9.7952349642658874e+00 1.0591631335555094e+00 0 0 0
165 2 13 -1.2010000000000001e+00 3.4072481120163061e+00 9.7969685424352733e+00 3.2788528162444242e+00 0 0 0
166 2 13 -1.2010000000000001e+00 1.2341372481105952e+00 1.1979885954919570e+01 3.2787880380793304e+00 0 0 0
167 2 13 -1.2010000000000001e+00 3.4161522392922485e+00 1.1986553548385869e+01 1.0664523413349170e+00 0 0 0
168 2 12 1.2010000000000001e+00 4.5110406286515987e+00 8.7089449016590006e+00 1.3632349156463522e-01 0 0 0
169 2 12 1.2010000000000001e+00 4.5062434340248725e+00 1.0892181102550829e+01 2.2859212293809170e+00 0 0 0
170 2 13 -1.2010000000000001e+00 5.5971379616239432e+00 9.8052149504506332e+00 1.0574293964754400e+00 0 0 0
171 2 13 -1.2010000000000001e+00 5.6042306218997178e+00 1.1989449794957959e+01 3.2690344317720403e+00 0 0 0
172 2 12 1.2010000000000001e+00 1.5347612979707109e-01 6.5207630860821917e+00 6.6744419547057294e+00 0 0 0
173 2 12 1.2010000000000001e+00 2.3268370563071348e+00 6.5191771882406089e+00 4.4525453885216830e+00 0 0 0
174 2 13 -1.2010000000000001e+00 1.2436024185850654e+00 7.6101234814898140e+00 7.6735914047386400e+00 0 0 0
175 2 13 -1.2010000000000001e+00 3.4069690409648876e+00 7.6128576583842538e+00 5.4604038622221660e+00 0 0 0
176 2 12 1.2010000000000001e+00 4.5055200879267314e+00 6.5097532832846650e+00 6.6674708543672638e+00 0 0 0
177 2 13 -1.2010000000000001e+00 5.5994829355907250e+00 7.6239868544842153e+00 7.6063514849305465e+00 0 0 0
178 2 12 1.2010000000000001e+00 1.4941813722435227e-01 8.7110619572257963e+00 4.4636350142654413e+00 0 0 0
179 2 12 1.2010000000000001e+00 2.3300402892147449e+00 8.7057470903299663e+00 6.6953665946654422e+00 0 0 0
180 2 12 1.2010000000000001e+00 1.3878809993292271e-01 1.0886200844004440e+01 6.7210148486493200e+00 0 0 0
181 2 12 1.2010000000000001e+00 2.3238461949917926e+00 1.0887278151995726e+01 4.4632451562308173e+00 0 0 0
182 2 13 -1.2010000000000001e+00 1.2323386840874473e+00 9.8024314255223217e+00 5.4771094845951973e+00 0 0 0
183 2 13 -1.2010000000000001e+00 3.4248563807081229e+00 9.8039362906244101e+00 7.6735744886807344e+00 0 0 0
184 2 13 -1.2010000000000001e+00 1.2317956759427955e+00 1.1988437494395100e+01 7.6920713507064109e+00 0 0 0
185 2 13 -1.2010000000000001e+00 3.4172191932784726e+00 1.1977198610671593e+01 5.4610611904016828e+00 0 0 0
186 2 12 1.2010000000000001e+00 4.4952920949545874e+00 8.7015179128636806e+00 4.4466517396509717e+00 0 0 0
187 2 12 1.2010000000000001e+00 4.5153537829798420e+00 1.0895022019369112e+01 6.6830930150726449e+00 0 0 0
188 2 13 -1.2010000000000001e+00 5.5866783563118121e+00 9.8067280170809230e+00 5.4234446798562326e+00 0 0 0
189 2 13 -1.2010000000000001e+00 5.6030459802251364e+00 1.1993683883561342e+01 7.6697675898960549e+00 0 0 0
190 2 12 1.2010000000000001e+00 6.7031855440200347e+00 6.5218000511961334e+00 1.3247062867529039e-01 0 0 0
191 2 13 -1.2010000000000001e+00 7.7924908025805317e+00 7.6134915493339141e+00 1.0550633561245688e+00 0 0 0
192 2 12 1.2010000000000001e+00 8.8912299675059394e+00 6.5213349775645773e+00 2.2817660957747665e+00 0 0 0
193 2 12 1.2010000000000001e+00 1.1084464625525269e+01 6.5229185857375827e+00 1.4158675299021622e-01 0 0 0
194 2 13 -1.2010000000000001e+00 9.9843769778360727e+00 7.6191197958236705e+00 3.2749016617467568e+00 0 0 0
195 2 13 -1.2010000000000001e+00 1.2167415536984148e+01 7.6145044378455840e+00 1.0706541196690260e+00 0 0 0
196 2 12 1.2010000000000001e+00 6.6937631839312921e+00 8.7143981540604667e+00 2.2838808293941288e+00 0 0 0
197 2 12 1.2010000000000001e+00 6.7042059790312578e+00 1.0883489786141764e+01 1.4088465972160991e-01 0 0 0
198 2 13 -1.2010000000000001e+00 7.7897724287925971e+00 9.8150830825087372e+00 3.2724551826583870e+00 0 0 0
199 2 13 -1.2010000000000001e+00 7.7941987462457343e+00 1.1988766156309826e+01 1.0529480229917418e+00 0 0 0
200 2 12 1.2010000000000001e+00 8.8907944854851024e+00 8.7053266479746050e+00 1.3748136952084378e-01 0 0 0
201 2 12 1.2010000000000001e+00 1.1075922681631130e+01 8.7085785192846732e+00 2.2825953630735571e+00 0 0 0
202 2 12 1.2010000000000001e+00 8.8895991431914361e+00 1.0897499191581703e+01 2.2819856069649700e+00 0 0 0
203 2 12 1.2010000000000001e+00 1.1065775403181890e+01 1.0898304840692258e+01 1.4272975411778135e-01 0 0 0
204 2 13 -1.2010000000000001e+00 9.9794420980209235e+00 9.7992155145498110e+00 1.0600590376932930e+00 0 0 0
205 2 13 -1.2010000000000001e+00 1.2168936449314193e+01 9.8020741682806332e+00 3.2762436702185780e+00 0 0 0
206 2 13 -1.2010000000000001e+00 9.9828221915422830e+00 1.1988637690596576e+01 3.2787876913034064e+00 0 0 0
207 2 13 -1.2010000000000001e+00 1.2167386861438953e+01 1.1979006261807269e+01 1.0673853579220980e+00 0 0 0
208 2 12 1.2010000000000001e+00 6.7033395759969387e+00 6.5209515378675489e+00 4.4341729272931545e+00 0 0 0
209 2 13 -1.2010000000000001e+00 7.7963476356760166e+00 7.6170571763385437e+00 5.4276078271033033e+00 0 0 0
210 2 12 1.2010000000000001e+00 8.8915870539739821e+00 6.5316172054321333e+00 6.6476412425192448e+00 0 0 0
211 2 12 1.2010000000000001e+00 1.1075822599969525e+01 6.5250924437886200e+00 4.4635777497598292e+00 0 0 0
212 2 13 -1.2010000000000001e+00 9.9784291153758513e+00 7.6066446390745597e+00 7.6549321482532866e+00 0 0 0
213 2 13 -1.2010000000000001e+00 1.2168690864070946e+01 7.6216497664095595e+00 5.4678186584758182e+00 0 0 0
214 2 12 1.2010000000000001e+00 6.6803505642642405e+00 8.7114375598082745e+00 6.6010907838111041e+00 0 0 0
215 2 12 1.2010000000000001e+00 6.6951946960303479e+00 1.0908716070179139e+01 4.4567027389771869e+00 0 0 0
216 2 13 -1.2010000000000001e+00 7.7529946318746674e+00 9.8516507459767304e+00 7.5358129280792330e+00 0 0 0
217 2 13 -1.2010000000000001e+00 7.7912384119402365e+00 1.2014361924640871e+01 5.4493029566953037e+00 0 0 0
218 2 12 1.2010000000000001e+00 8.8903294714122723e+00 8.7193966473060680e+00 4.4468041730639882e+00 0 0 0
219 2 12 1.2010000000000001e+00 1.1073874364267599e+01 8.7167663973685130e+00 6.6971463439570762e+00 0 0 0
220 2 12 1.2010000000000001e+00 8.8967553287409036e+00 1.0929370432555290e+01 6.6317610519894554e+00 0 0 0
221 2 12 1.2010000000000001e+00 1.1083047781546606e+01 1.0893391185377903e+01 4.4528192165428351e+00 0 0 0
222 2 13 -1.2010000000000001e+00 9.9922919958911596e+00 9.8052328039737819e+00 5.4502220883132777e+00 0 0 0
223 2 13 -1.2010000000000001e+00 1.2157415835144743e+01 9.7947938274950879e+00 7.7109399939426995e+00 0 0 0
224 2 13 -1.2010000000000001e+00 9.9673803436910049e+00 1.1987725181894659e+01 7.6702738976097269e+00 0 0 0
225 2 13 -1.2010000000000001e+00 1.2161077413037358e+01 1.1981705678811426e+01 5.4793962406788452e+00 0 0 0
43 1 7 3.7800000000000000e-01 6.8560144437984585e+00 2.2383655970339102e+00 1.1043335904641255e+01 0 1 0
44 1 4 8.0700000000000005e-01 4.9083208569888077e+00 2.2501586266867566e+00 1.0583153383056290e+01 0 1 0
46 1 8 -7.2599999999999998e-01 4.9862607146514932e+00 9.3096505304959520e-01 1.0733318519426652e+01 0 1 0
47 1 7 3.7800000000000000e-01 5.8851146406670996e+00 5.5299477512777795e-01 1.0901979678661888e+01 0 1 0
50 1 6 1.2680000000000000e-01 5.0285260323894443e+00 1.1353372398518472e+01 1.0564829690967890e+01 0 0 0
73 1 11 -2.6600000000000001e-01 3.4622465068457856e-02 4.1089726674216802e+00 1.1392116066979602e+01 0 0 0
70 1 1 2.7000000000000000e-02 1.0908747920580497e+00 4.8747818433419994e+00 1.0807818352460497e+01 0 0 0
77 1 6 5.2999999999999999e-02 3.8073959300779092e-01 2.3152617445926040e+00 1.0383526433501288e+01 0 0 0
49 1 5 -1.2680000000000000e-01 4.0233946481840412e+00 1.1775170997284016e+01 1.0699410576242078e+01 0 0 0
52 1 6 1.2680000000000000e-01 3.1496193295584152e+00 9.8152955009891851e+00 1.0769025566627684e+01 0 0 0
65 1 6 5.2999999999999999e-02 1.1981084524609901e+01 6.3893385667910874e+00 1.1352655353031949e+01 -1 0 0
64 1 1 -1.0600000000000000e-01 1.2830422556788935e+01 6.9935204547090768e+00 1.0991351362858163e+01 -1 0 0
51 1 5 -1.2680000000000000e-01 2.9497675191472079e+00 1.0896263992292814e+01 1.0826815250824282e+01 0 0 0
71 1 6 5.2999999999999999e-02 2.0549446230552504e+00 4.3778347535908519e+00 1.0990859061463713e+01 0 0 0
48 1 5 2.3699999999999999e-01 3.8680389386714054e+00 5.1912966658112930e-02 1.0785957164750315e+01 0 1 0
62 1 6 5.2999999999999999e-02 1.1678529288786764e+01 8.7931407520749882e+00 1.1124646505161897e+01 -1 0 0
68 1 6 5.2999999999999999e-02 1.8961343267501718e+00 6.8728788399979397e+00 1.1001297812050929e+01 0 0 0
61 1 1 1.1899999999999999e-01 1.2654759030955843e+01 8.4206732404804256e+00 1.1481651161159194e+01 -1 0 0
60 1 10 -3.9600000000000002e-01 5.8054956968667681e-01 9.2652774304521852e+00 1.0977383852171393e+01 0 0 0
53 1 5 -1.7999999999999999e-02 1.6602770803998075e+00 1.1398068466289017e+01 1.1045679523217416e+01 0 0 0
67 1 1 -1.0600000000000000e-01 1.0361922307347498e+00 6.2922032348361645e+00 1.1378969779806697e+01 0 0 0
54 1 5 -1.2680000000000000e-01 1.4846522925100061e+00 1.2786085992351703e+01 1.1084190487248961e+01 0 0 0
55 1 6 1.2680000000000000e-01 4.9761839277064934e-01 1.3144529727464227e-01 1.1245575302649934e+01 0 1 0
56 1 5 -1.2680000000000000e-01 2.5684403733611743e+00 5.2206712982563142e-01 1.0971090656765504e+01 0 1 0
57 1 6 1.2680000000000000e-01 2.3434292490142181e+00 1.5827134077306144e+00 1.1079676267916044e+01 0 1 0
58 1 3 7.1999999999999997e-01 4.6277004058523136e-01 1.0575545166179918e+01 1.1334204285494049e+01 0 0 0
22 1 5 -1.2680000000000000e-01 7.3534029901358986e+00 1.0274165646258934e+01 1.2097095708080682e+01 0 1 0
23 1 6 1.2680000000000000e-01 6.3778987391255768e+00 9.9997663399203329e+00 1.2525381661849167e+01 0 1 0
19 1 5 2.3699999999999999e-01 9.1873618565914903e+00 1.1859215731328792e+01 1.1973738850815881e+01 0 1 0
20 1 5 -1.2680000000000000e-01 7.9634306466256595e+00 1.1450723817610760e+01 1.2515529312434916e+01 0 1 0
16 1 9 -5.8499999999999996e-01 8.1016398263968235e+00 1.2952230416080237e+00 1.1913617183817871e+01 0 2 0
21 1 6 1.2680000000000000e-01 7.4527450941326485e+00 1.2069729218035683e+01 1.3262501357425000e+01 0 1 0
17 1 8 -7.2599999999999998e-01 9.8334525287862480e+00 1.3077378799348782e+01 1.2374554695897302e+01 0 1 0
80 1 6 5.2999999999999999e-02 9.8742411810536002e+00 8.5701705289782755e+00 1.3434296270376745e+01 0 2 0
59 1 9 -5.3100000000000003e-01 1.2577241180338504e+01 1.1001520299935471e+01 1.1866278881238340e+01 -1 0 0
63 1 6 5.2999999999999999e-02 1.2656486453514828e+01 8.4588041755119860e+00 1.2585514428427974e+01 -1 0 0
69 1 6 5.2999999999999999e-02 1.1508398974791056e+00 6.2581469718697509e+00 1.2475268113675581e+01 0 0 0
1 1 2 3.9639999999999997e-01 8.3087171868857475e+00 7.4207229800632470e+00 1.4341356359733231e+01 0 2 0
2 1 9 -3.9639999999999997e-01 7.1404635878127847e+00 7.7104058886579088e+00 1.4519025971643350e+01 0 2 0
3 1 5 0.0000000000000000e+00 8.7402203074504659e+00 6.0024541248066061e+00 1.4041692108754022e+01 0 2 0
4 1 5 -1.2680000000000000e-01 1.0088265791084851e+01 5.6802294204290842e+00 1.3786773139416477e+01 0 2 0
5 1 6 1.2680000000000000e-01 1.0888009704949848e+01 6.4279159066405445e+00 1.3829685105633395e+01 0 2 0
6 1 5 -1.2680000000000000e-01 1.0438880810186447e+01 4.3755862155145229e+00 1.3485474254682673e+01 0 2 0
7 1 6 1.2680000000000000e-01 1.1497745515039384e+01 4.1522602947751102e+00 1.3299536261378323e+01 0 2 0
8 1 5 2.3699999999999999e-01 9.4919647207123923e+00 3.3567713236942058e+00 1.3389562221806717e+01 0 2 0
9 1 5 -1.2680000000000000e-01 8.1636606415341983e+00 3.6801050360070540e+00 1.3681561138370125e+01 0 2 0
10 1 6 1.2680000000000000e-01 7.3827713041555212e+00 2.9063371258836881e+00 1.3643906885458314e+01 0 2 0
11 1 5 -1.2680000000000000e-01 7.7776465706004307e+00 4.9750914035595359e+00 1.3999567429656304e+01 0 2 0
12 1 6 1.2680000000000000e-01 6.7127372653113166e+00 5.1817800768365734e+00 1.4183553668256474e+01 0 2 0
13 1 8 -7.2599999999999998e-01 9.9085605002498109e+00 2.0394879974767695e+00 1.3028964680283632e+01 0 2 0
14 1 7 3.7800000000000000e-01 1.0824629212245855e+01 1.8149130945312346e+00 1.3313256647805963e+01 0 2 0
15 1 4 8.0700000000000005e-01 9.1920473628967958e+00 1.1222558476081361e+00 1.2396262354666298e+01 0 2 0
18 1 7 3.7800000000000000e-01 1.0777108584624171e+01 1.2982112534085017e+01 1.2636850446491733e+01 0 1 0
78 1 1 -1.5900000000000000e-01 9.3614374697116105e+00 8.5057921026386989e+00 1.4405427498121623e+01 0 2 0
79 1 6 5.2999999999999999e-02 1.0109311256204965e+01 8.2387792666291553e+00 1.5160481283630844e+01 0 2 0
81 1 6 5.2999999999999999e-02 8.9123449633703551e+00 9.4780937727014258e+00 1.4651247234370304e+01 0 2 0

Velocities

29 3.1368172283838681e-02 5.5339443567877344e-01 5.5922261481972013e-01
30 -5.5292112381577363e-01 -2.5183441910899917e+00 -1.2532608562674510e+00
31 4.9964528543350412e-01 7.7489209330271303e-01 9.9105043550689920e-01
32 -5.0133254867469590e-01 -3.5422160851565188e-01 1.8211444849193258e-02
33 -2.2458622017387028e-01 4.7745264568717422e-01 3.0479501416378507e-01
34 3.2601226547997453e-01 2.2496710323087832e-01 -3.3419627952808963e+00
35 -4.5321672461717172e-02 -7.9512411630087487e-01 1.4320206730756807e-01
36 -8.5654361378237032e-01 -1.4144283555401298e+00 -2.2598014647613551e+00
37 -1.9613410253970909e-01 -2.5086010591969576e-01 -6.0002859965694011e-01
38 5.1207214825627970e-02 2.6599299318245101e-01 -9.5955019772711134e-02
39 -9.0403981689605084e-01 4.4382282628905145e-01 -8.3043498077056344e-01
40 -7.2230857654696889e-02 -1.4586262878464432e-01 4.6524668229223343e-01
42 -1.4120599023334282e-01 1.4663526421405942e-01 8.4106590040655971e-01
45 2.0452171683712037e-01 1.6908285465253892e-01 2.9697963396337457e-01
66 -1.1047652196680649e-01 1.1424393628603491e+00 -7.6835041655775693e-01
72 6.7190857467552612e-01 1.1997848799686830e+00 -5.5883559834625074e-01
41 -7.3486498789881782e-01 4.3366798625675773e-01 -1.5254323334002280e+00
24 1.5783008023869849e-01 5.6365885001944793e-01 2.2746070585772776e-01
25 8.4240312411788004e-02 8.9010535277503994e-02 -5.0630943096611813e-02
26 7.0436646182686036e-01 1.5445817850201926e-01 -1.5166663850023709e+00
27 3.0899629108007226e-01 -5.2466429643991197e-01 5.6059947365730656e-01
28 4.2956591933609956e-02 -1.5278504676058364e+00 -2.3980164129817103e+00
75 -1.8312885165179132e-01 8.7521037836658033e-01 -2.4126576792417595e-01
74 -4.5044737860318979e-01 7.6343273952411722e-02 2.3814565360424039e-01
76 -1.0679923687763702e+00 9.0139888684107961e-01 -7.7829912689275749e-01
82 5.8936476381868896e-01 -2.4201697609893044e-01 1.1986323372615972e+00
83 2.2019899883581820e-01 2.7789965181441512e-01 1.9061919834621472e+00
84 2.0242328142685048e-01 1.8692552945389965e-02 1.8591370795817563e+00
85 -2.9284147383635889e-01 1.1167147753324735e-01 1.1855688656648615e+00
86 3.3666931188928262e-01 -5.0506347629207404e-01 -3.6570965787797700e+00
87 2.5731795886705078e-01 4.7049435697419845e-01 -4.1298676908725636e+00
88 -1.1971145148265409e-01 -5.4085453857026422e-01 -4.3487093542844910e+00
89 4.0391976034975879e-01 2.9021570127205860e-02 -3.7224709771178235e+00
90 -1.9113335107333168e-01 1.4708649150227487e-01 1.1375883765032644e+00
91 2.4231088452583752e-01 -3.4396065322677860e-02 2.0581142278702513e+00
92 -1.9428267821427395e-01 -6.5323730621803605e-02 -3.2830418516776274e+00
93 4.9743661075402995e-01 1.3068558565369220e-01 -4.1160959317919987e+00
94 2.0416415130529009e-01 -1.1073158670423137e-01 1.3668747765340803e+00
95 2.2590749658300940e-01 4.5221602778013195e-02 1.7546970851626007e+00
96 -1.2207249663333451e-01 -7.5377498804830634e-02 -3.3835140885183081e+00
97 3.2778686346040847e-01 -1.5943938528686131e-02 -4.1325109550330028e+00
98 -2.1278767151200523e-01 -7.8454760627923933e-02 1.2017021883194257e+00
99 6.9959894312628043e-03 -1.6627319198236443e-01 -3.2987961680790843e+00
100 5.6334695501132008e-02 -2.7118153673431045e-01 1.6916665161391269e+00
101 2.3413708063133556e-01 3.7618717162309773e-01 1.4521831153287892e+00
102 2.0573121110905956e-01 2.6178298286613760e-01 1.4837087660027093e+00
103 -2.4974614687247187e-01 1.2310766888494937e-01 1.8030153756526075e+00
104 -3.5208199927901462e-01 6.3173649035601709e-01 -3.9664000559298778e+00
105 -3.0287271730041915e-01 -3.5910392140711317e-01 -3.7061618525117210e+00
106 3.4545497702186317e-02 1.6044694327096248e-01 -3.5702963223103419e+00
107 1.0194343730239097e-01 -5.3542755145774140e-03 -4.1904831195596044e+00
108 -2.2693525764342098e-01 -1.0554740810072834e-01 1.8444489072854882e+00
109 1.4626748640047503e-03 -2.5649318128936233e-01 1.6973766657684159e+00
110 -2.4977920446259180e-01 4.0375412306296665e-01 -3.5913047854694859e+00
111 -3.9282012107560729e-02 -8.7899810144779003e-02 -3.8710334142264919e+00
112 -7.9240680463758650e-02 2.3970841186038327e-01 1.9127931444188782e+00
113 -9.8141699163024329e-02 -6.0981265609638333e-03 1.4272818431000773e+00
114 -4.2320003459076377e-01 4.2504727123780978e-01 -4.3808555342948630e+00
115 7.2828711106624505e-02 1.4160582549012407e-01 -3.1854087891920528e+00
116 1.8179222244628868e-01 -1.7932372201739047e-01 1.8651214463078549e+00
117 8.4803522684016502e-02 1.3999201085828100e-01 -4.5747347396527394e+00
118 6.3548656018085611e-02 -5.5616805262509186e-02 1.3582590253313160e+00
119 -2.6502084947958837e-01 -6.6797176527717925e-02 1.2269907781573848e+00
120 2.0395157324960177e-02 -2.6725523390448987e-02 -4.6185158183455313e+00
121 2.5656849530421910e-01 5.0751505881152507e-02 -3.0651637886245928e+00
122 2.5626091381957072e-01 -2.2276441533034344e-01 1.3193081988148831e+00
123 -1.4015019884441585e-01 -2.1000332390931245e-01 1.7062790869114175e+00
124 6.3283764493532360e-02 1.6952984353994369e-02 1.7132985326936430e+00
125 7.2537793385435465e-02 -5.0754989496063840e-01 1.3706594391210287e+00